ITEM: TIMESTEP
13000000
ITEM: NUMBER OF ATOMS
9000
ITEM: BOX BOUNDS pp pp pp
11.307846098711984e-01 6.375351538944986e+01
11.307846098711984e-01 6.375351538944986e+01
11.307846098711984e-01 6.375351538944986e+01
ITEM: ATOMS id mol x y z ix iy iz type
1 1 45.960564000000005 18.8458434 44.377953 -1 2 2 2
2 1 45.158058000000004 17.6276613 43.913034 -1 2 2 1
3 1 45.829302000000006 16.4064924 44.525721000000004 -1 2 2 1
4 1 46.173177 15.2457276 43.547151 -1 2 2 1
5 1 46.800798 14.086181100000001 44.348085 -1 2 2 1
6 1 47.17179 12.9441231 43.384449000000004 -1 2 2 1
7 1 47.962899 11.950697700000001 44.265162000000004 -1 2 2 1
8 1 48.285945000000005 10.6684173 43.460691000000004 -1 2 2 1
9 1 49.173732 9.729894 44.198352 -1 2 2 1
10 1 49.995888 8.6831385 43.440648 -1 2 2 1
11 1 49.15054500000001 7.5482724 42.870405000000005 -1 2 2 1
12 1 50.017896 6.501241800000001 42.10248300000001 -1 2 2 1
13 1 50.992143 5.7146523 42.959223 -1 2 2 1
14 1 51.656313000000004 4.6298544 42.115452000000005 -1 2 2 1
15 1 52.406157 3.5812125000000004 42.997344 -1 2 2 1
16 1 53.29473 2.5953916500000003 42.253002 -1 2 2 1
17 1 53.849646 1.35592467 43.024854000000005 -1 2 2 1
18 1 54.586914 63.08278800000001 41.947248 -1 1 2 1
19 1 55.187025000000006 61.719864 42.348894 -1 1 2 1
20 1 56.033154 61.247085000000006 41.250066000000004 -1 1 2 1
21 1 56.643876 59.772549000000005 41.418663 -1 1 2 1
22 1 57.495900000000006 59.116239 40.29822 -1 1 2 1
23 1 58.384866 57.944706 40.676286 -1 1 2 1
24 1 59.285229 57.361887 39.602217 -1 1 2 1
25 1 60.201705000000004 56.229261 40.042377 -1 1 2 1
26 1 60.981417 55.548584999999996 38.881730100000006 -1 1 2 1
27 1 62.210328 54.888345 39.489426 -1 1 2 1
28 1 63.259245 54.548793 38.3900478 -1 1 2 1
29 1 1.83396987 53.645679 38.8170816 0 1 2 1
30 1 2.82245526 53.378832 37.728943199999996 0 1 2 1
31 1 3.6762163200000004 54.574731 37.2734169 0 1 2 1
32 1 4.643609400000001 54.29766600000001 36.121180200000005 0 1 2 1
33 1 5.544561900000001 55.471164 35.745904499999995 0 1 2 1
34 1 6.4674831 55.393743 34.575550500000006 0 1 2 1
35 1 7.2474701999999995 56.622654000000004 34.2011001 0 1 2 1
36 1 6.4404447000000005 57.757245000000005 33.5974128 0 1 2 1
37 1 7.2300603 59.076939 33.165191400000005 0 1 2 1
38 1 6.4805307 60.119568 32.32338540000001 0 1 2 1
39 1 6.059274 59.644038 30.9147162 0 1 2 1
40 1 4.8468297 60.409995 30.3754023 0 1 2 1
41 1 4.6068639000000005 60.151794 28.8753999 0 1 2 1
42 1 3.2978595 60.71653500000001 28.3890624 0 1 2 1
43 1 2.09645064 60.096774 29.169874800000002 0 1 2 1
44 1 1.40849628 58.886334000000005 28.5743226 0 1 2 1
45 1 63.623556 59.166543 27.1314231 -1 1 2 1
46 1 63.640455 57.876324000000004 26.285647800000003 -1 1 2 1
47 1 63.146060999999996 58.03038 24.782855100000003 -1 1 2 1
48 1 62.816727 56.72011800000001 23.945883 -1 1 2 1
49 1 62.03426400000001 57.002292000000004 22.621197900000002 -1 1 2 1
50 1 62.725158 58.075182000000005 21.725433000000002 -1 1 2 1
51 1 62.006361 58.030773 20.415957 -1 1 2 1
52 1 62.744808000000006 58.809699 19.3570185 -1 1 2 1
53 1 62.028369000000005 58.695336000000005 17.977706400000002 -1 1 2 1
54 1 60.697278 59.41963500000001 17.9390745 -1 1 2 1
55 1 59.884947000000004 59.111523000000005 16.6696452 -1 1 2 1
56 1 60.416676 59.801631 15.399705 -1 1 2 1
57 1 59.220777 60.081054 14.527638000000001 -1 1 2 1
58 1 59.71006200000001 60.962946 13.4182383 -1 1 2 1
59 1 58.581759000000005 61.796892 12.7885737 -1 1 2 1
60 1 57.946671 62.964888 13.6609158 -1 1 2 1
61 1 56.860419 63.814161000000006 12.9418437 -1 1 2 1
62 1 56.223759 2.2610351100000003 13.882960800000001 -1 2 2 1
63 1 55.106460000000006 2.93805621 13.0772715 -1 2 2 1
64 1 54.195879000000005 3.6061011900000004 14.0799324 -1 2 2 1
65 1 52.975614 4.2765867 13.405819500000002 -1 2 2 1
66 1 51.965997 4.976166 14.356683 -1 2 2 1
67 1 50.738265000000006 5.4734289 13.5660063 -1 2 2 1
68 1 49.748691 6.0959016 14.559392400000002 -1 2 2 1
69 1 48.59445 6.9912735 14.031043200000001 -1 2 2 1
70 1 47.767578 7.5780618 15.169682100000001 -1 2 2 1
71 1 46.501332 8.2724142 14.6732838 -1 2 2 1
72 1 45.744414 8.9631903 15.8181321 -1 2 2 1
73 1 44.392887 9.5409396 15.389447700000002 -1 2 2 1
74 1 43.676055000000005 10.454035800000002 16.412859 -1 2 2 1
75 1 42.488409 11.269235700000001 15.802019100000003 -1 2 2 1
76 1 41.860002 12.3510075 16.7062335 -1 2 2 1
77 1 40.348524000000005 12.633378 16.5202266 -1 2 2 1
78 1 39.738588 13.5220689 17.4903471 -1 2 2 1
79 1 38.3466999 14.1124728 17.139909 -1 2 2 1
80 1 37.8006657 15.1829262 18.1062174 -1 2 2 1
81 1 36.4624614 15.8467818 17.7850971 -1 2 2 1
82 1 36.0612477 17.072195100000002 18.6224622 -1 2 2 1
83 1 34.5780264 17.5726413 18.4864056 -1 2 2 1
84 1 34.2381993 19.0248156 18.803478000000002 -1 2 2 1
85 1 32.7701085 19.5051009 18.4923399 -1 2 2 1
86 1 32.5780887 20.992134300000004 18.8712312 -1 2 2 1
87 1 31.152402600000002 21.344537400000004 18.4890387 -1 2 2 1
88 1 30.854823 22.8461904 18.7247994 -1 2 2 1
89 1 29.3516766 23.2169466 18.742956 -1 2 2 1
90 1 28.745985 22.8709101 20.1153906 -1 2 2 1
91 1 27.315622200000004 23.3632212 20.2271991 -1 2 2 1
92 1 27.1139346 24.849665100000003 20.551935 -1 2 2 1
93 1 25.6397523 25.343626800000003 20.4350961 -1 2 2 1
94 1 25.6159758 26.8362015 20.6780094 -1 2 2 1
95 1 24.2302185 27.499192500000003 20.7890712 -1 2 2 1
96 1 24.227310300000003 28.987051200000003 20.859261 -1 2 2 1
97 1 24.3278004 29.574075300000004 22.2424638 -1 2 2 1
98 1 24.907750500000002 30.9922551 22.2168402 -1 2 2 1
99 1 24.950941200000003 31.7328243 23.5212858 -1 2 2 1
100 1 25.581863400000003 33.092958 23.5255302 -1 2 2 1
101 1 25.7553729 33.5499777 24.990830700000004 -1 2 2 1
102 1 27.0190251 32.93359650000001 25.6352721 -1 2 2 1
103 1 27.3797598 33.0622647 27.1163319 -1 2 2 1
104 1 28.8417591 32.76048 27.4234221 -1 2 2 1
105 1 29.3368998 31.3636008 26.9595642 -1 2 2 1
106 1 30.847473900000004 31.142106000000002 27.123130800000002 -1 2 2 1
107 1 31.290227700000003 29.7526545 26.7343359 -1 2 2 1
108 1 32.786300100000005 29.3734881 26.7757188 -1 2 2 1
109 1 33.0382917 27.8793021 26.3861379 -1 2 2 1
110 1 34.5326349 27.5208075 26.5283646 -1 2 2 1
111 1 34.9634415 26.1457398 25.932105 -1 2 2 1
112 1 36.434165400000005 25.6329534 26.0761788 -1 2 2 1
113 1 36.7206624 24.5713818 24.9972366 -1 2 2 1
114 1 38.0649189 23.8352142 25.3225227 -1 2 2 1
115 1 38.522685300000006 22.662659400000003 24.479852100000002 -1 2 2 1
116 1 39.615186 21.791339100000002 25.163397 -1 2 2 1
117 1 40.256562 20.6344257 24.336918 -1 2 2 1
118 1 41.342028000000006 19.735674 24.951963 -1 2 2 1
119 1 41.782188000000005 18.5787213 24.0739224 -1 2 2 1
120 1 43.189914 18.094113 24.5786523 -1 2 2 1
121 1 43.666623 16.8393426 23.8129704 -1 2 2 1
122 1 44.915577000000006 16.124004000000003 24.3906804 -1 2 2 1
123 1 45.430014 15.1296747 23.4017352 -1 2 2 1
124 1 46.778397000000005 14.5273236 23.826057300000002 -1 2 2 1
125 1 47.096334000000006 13.180473300000001 23.179493700000002 -1 2 2 1
126 1 48.520566 12.7353615 23.4978237 -1 2 2 1
127 1 48.862476 11.37735 22.823475000000002 -1 2 2 1
128 1 50.234046 10.9036278 23.3848362 -1 2 2 1
129 1 50.700537000000004 9.532883100000001 22.8079515 -1 2 2 1
130 1 52.195902000000004 9.2991267 23.0498823 -1 2 2 1
131 1 52.498119 7.877134800000001 22.739294400000002 -1 2 2 1
132 1 53.783229 7.4210583 23.459742000000002 -1 2 2 1
133 1 54.804636 6.6525468000000005 22.670008499999998 -1 2 2 1
134 1 56.133762000000004 6.4955433 23.4376554 -1 2 2 1
135 1 56.218650000000004 6.0174981 24.878982900000004 -1 2 2 1
136 1 57.615372 6.1620042 25.418375400000002 -1 2 2 1
137 1 57.835059 5.274138600000001 26.623667100000002 -1 2 2 1
138 1 59.145714 5.4275658 27.400706700000004 -1 2 2 1
139 1 59.181477 4.666089 28.7786433 -1 2 2 1
140 1 60.345543000000006 5.214520500000001 29.668041600000002 -1 2 2 1
141 1 60.681165 4.0858638 30.671685 -1 2 2 1
142 1 62.050377000000005 4.2138246 31.338920400000003 -1 2 2 1
143 1 62.440233 3.10861821 32.349008999999995 -1 2 2 1
144 1 63.684864 3.33248673 33.2736594 -1 2 2 1
145 1 2.32617486 3.1512705 32.4035181 0 2 2 1
146 1 3.5808548700000005 3.38490114 33.2197398 0 2 2 1
147 1 3.69629862 2.71414839 34.5398268 0 2 2 1
148 1 4.8278871 3.2956862100000004 35.314036800000004 0 2 2 1
149 1 4.8572049 2.89146606 36.7936032 0 2 2 1
150 1 6.1239618 3.2776396500000002 37.505876400000005 0 2 2 2
151 2 1.83192627 4.3525143 39.239478000000005 0 -1 0 2
152 2 1.5351759 5.4638397 40.311189000000006 0 -1 0 1
153 2 62.81908500000001 6.1052943 39.984999 -1 -1 0 1
154 2 62.238624 6.9083898 41.160462 -1 -1 0 1
155 2 60.82068 7.476392700000001 40.981647 -1 -1 0 1
156 2 60.327465000000004 8.3490885 42.119775 -1 -1 0 1
157 2 58.84467600000001 8.592394800000001 42.040389000000005 -1 -1 0 1
158 2 58.068894 9.6080247 42.919923 -1 -1 0 1
159 2 56.548377 9.798629700000001 42.724209 -1 -1 0 1
160 2 56.025687000000005 11.0636967 43.331001 -1 -1 0 1
161 2 54.507135000000005 11.271633000000001 43.073586000000006 -1 -1 0 1
162 2 54.013527 12.6358146 43.554618 -1 -1 0 1
163 2 52.63842 13.0569534 42.926211 -1 -1 0 1
164 2 52.23756 14.5523577 43.321962000000006 -1 -1 0 1
165 2 50.776386 14.9074332 43.08812700000001 -1 -1 0 1
166 2 50.302821 16.365306 43.44615 -1 -1 0 1
167 2 50.491068 16.7919075 44.871561 -1 -1 0 1
168 2 49.909428000000005 15.760989900000002 45.81987 -1 -1 0 1
169 2 49.604853 16.3170849 47.205981 -1 -1 0 1
170 2 49.019676000000004 15.2431338 48.15822 -1 -1 0 1
171 2 49.03461 15.676927200000002 49.618215000000006 -1 -1 0 1
172 2 48.135819000000005 14.9200092 50.594034 -1 -1 0 1
173 2 48.169224 15.5035749 52.022982 -1 -1 0 1
174 2 47.80609200000001 17.000472600000002 52.023375 -1 -1 0 1
175 2 47.37457800000001 17.5919376 53.40398400000001 -1 -1 0 1
176 2 46.393257 16.7274162 54.249327 -1 -1 0 1
177 2 46.140558000000006 17.1177045 55.670415 -1 -1 0 1
178 2 45.15845100000001 16.076844 56.190354000000006 -1 -1 0 1
179 2 44.780778000000005 16.3760349 57.654279 -1 -1 0 1
180 2 43.725573 15.3783258 58.161642 -1 -1 0 1
181 2 42.750147000000005 14.974479 57.02037000000001 -1 -1 0 1
182 2 41.853321 13.8120636 57.458565 -1 -1 0 1
183 2 42.644823 12.543263099999999 58.025271000000004 -1 -1 0 1
184 2 43.230786 11.420187 57.066351000000004 -1 -1 0 1
185 2 44.388957000000005 10.682133 57.677466 -1 -1 0 1
186 2 44.974920000000004 9.7572075 56.58885600000001 -1 -1 0 1
187 2 45.876855000000006 8.6185293 57.08246400000001 -1 -1 0 1
188 2 46.289505 7.709677500000001 55.943943 -1 -1 0 1
189 2 46.831845 6.3439239 56.470563 -1 -1 0 1
190 2 47.60802 6.5101629 57.816588 -1 -1 0 1
191 2 47.81827500000001 5.1415797 58.439493000000006 -1 -1 0 1
192 2 48.627855000000004 4.1424558000000005 57.558780000000006 -1 -1 0 1
193 2 48.888807 2.72850075 58.196226 -1 -1 0 1
194 2 49.776201 1.76063214 57.481359000000005 -1 -1 0 1
195 2 50.083134 62.999865 58.144743 -1 -2 0 1
196 2 50.663202000000005 62.006754 57.166959000000006 -1 -2 0 1
197 2 52.045383 62.257881 56.546805000000006 -1 -2 0 1
198 2 52.547637 61.04233200000001 55.73919 -1 -2 0 1
199 2 53.965188000000005 61.079667 55.137114000000004 -1 -2 0 1
200 2 55.021965 61.293066 56.220615 -1 -2 0 1
201 2 56.443053 61.519041 55.644870000000004 -1 -2 0 1
202 2 57.187395 60.375018000000004 54.993276 -1 -2 0 1
203 2 58.649748 60.897315 54.690273000000005 -1 -2 0 1
204 2 59.37994200000001 60.065727 53.580834 -1 -2 0 1
205 2 59.728926 58.668612 54.137715 -1 -2 0 1
206 2 60.554619 57.728163 53.272329000000006 -1 -2 0 1
207 2 60.612783 56.316507 53.684979 -1 -2 0 1
208 2 61.32450600000001 56.018613 55.05537 -1 -2 0 1
209 2 60.796314 54.743721 55.77338100000001 -1 -2 0 1
210 2 61.629081 54.327141000000005 57.039627 -1 -2 0 1
211 2 61.55952 55.447191000000004 58.108587 -1 -2 0 1
212 2 62.463027000000004 55.411821 59.35596900000001 -1 -2 0 1
213 2 62.044875000000005 56.342052 60.533004 -1 -2 0 1
214 2 62.460276 57.776895 60.198561000000005 -1 -2 0 1
215 2 62.103825 58.78729800000001 61.227828 -1 -2 0 1
216 2 62.644593 58.351854 62.615904 -1 -2 0 1
217 2 62.313294000000006 59.273832 63.762678 -1 -2 0 1
218 2 62.637519000000005 58.701624 2.49829314 -1 -2 1 1
219 2 62.870568000000006 59.889663000000006 3.47545227 -1 -2 1 1
220 2 1.39327932 60.744438 3.12510849 0 -2 1 1
221 2 1.3897266 62.000466 3.9930765 0 -2 1 1
222 2 62.803365 62.96174400000001 3.8027269500000003 -1 -2 1 1
223 2 62.886288 1.64474037 4.641723000000001 -1 -1 1 1
224 2 61.707288 2.58808971 4.6266711 -1 -1 1 1
225 2 61.903788 3.85468941 5.4669051 -1 -1 1 1
226 2 60.641865 4.7692908 5.2530738 -1 -1 1 1
227 2 59.220777 4.264836 5.6962599 -1 -1 1 1
228 2 58.156926 5.3591838 5.6488248 -1 -1 1 1
229 2 56.782998000000006 4.9386345 6.086076600000001 -1 -1 1 1
230 2 55.849230000000006 6.1027791 5.651300700000001 -1 -1 1 1
231 2 54.375873000000006 5.7560352 5.997062100000001 -1 -1 1 1
232 2 53.378832 6.873177 5.7218049 -1 -1 1 1
233 2 52.084683 6.6111639 6.5486376 -1 -1 1 1
234 2 51.04677 7.6955295 6.3568929 -1 -1 1 1
235 2 49.625682 7.418228700000001 6.9851034 -1 -1 1 1
236 2 48.66912000000001 8.500983 6.5061936000000005 -1 -1 1 1
237 2 47.189082000000006 8.4406968 6.9716235 -1 -1 1 1
238 2 46.403868 9.710637 6.5569692 -1 -1 1 1
239 2 44.984352 9.8319168 7.1936292 -1 -1 1 1
240 2 44.032899 10.875174600000001 6.5550435 -1 -1 1 1
241 2 44.269485 12.345505500000002 7.0791483 -1 -1 1 1
242 2 43.231965 13.3608603 6.5323674 -1 -1 1 1
243 2 43.583307000000005 14.720208000000001 7.1249328 -1 -1 1 1
244 2 42.680979 15.946525200000002 6.6029108999999995 -1 -1 1 1
245 2 43.112886 17.2824108 7.1810925 -1 -1 1 1
246 2 44.51078700000001 17.6966721 6.6915324 -1 -1 1 1
247 2 44.886888 19.1186247 7.1332251 -1 -1 1 1
248 2 46.293828000000005 19.5741117 6.7498929 -1 -1 1 1
249 2 47.259822 18.6114189 7.450847700000001 -1 -1 1 1
250 2 48.693486 18.8384943 6.9965397 -1 -1 1 1
251 2 49.628433 18.009618000000003 7.8783531 -1 -1 1 1
252 2 51.00747 17.8776093 7.2010569 -1 -1 1 1
253 2 52.01119200000001 16.976145900000002 7.9849347 -1 -1 1 1
254 2 53.229492 16.4380503 7.199445600000001 -1 -1 1 1
255 2 54.05715000000001 15.3754962 7.929600300000001 -1 -1 1 1
256 2 55.136328000000006 14.7912624 6.9547638 -1 -1 1 1
257 2 56.252448 13.992765000000002 7.700992200000001 -1 -1 1 1
258 2 57.021156000000005 14.902206300000001 8.6790906 -1 -1 1 1
259 2 57.962784 14.1173853 9.5984748 -1 -1 1 1
260 2 59.061612000000004 13.5088641 8.732813700000001 -1 -1 1 1
261 2 60.166728 12.7462869 9.4825398 -1 -1 1 1
262 2 61.049013 11.966142600000001 8.505620400000002 -1 -1 1 1
263 2 62.168670000000006 11.3241378 9.231609299999999 -1 -1 1 1
264 2 61.82125800000001 10.340262300000001 10.3886013 -1 -1 1 1
265 2 62.989254 9.482304 10.8604371 -1 -1 1 1
266 2 62.728302 8.5382394 12.0152283 -1 -1 1 1
267 2 1.37988981 7.830760800000001 12.598125900000001 0 -1 1 1
268 2 2.11592772 7.092942600000001 11.4839316 0 -1 1 1
269 2 3.3924153 6.2500755 11.783319 0 -1 1 1
270 2 4.6272213 6.8971893 12.3906612 0 -1 1 1
271 2 4.8350004 8.3339187 11.8356273 0 -1 1 1
272 2 5.756624700000001 9.1336344 12.7567014 0 -1 1 1
273 2 5.7929772 10.566394500000001 12.3898359 0 -1 1 1
274 2 4.3582521000000005 11.1165159 12.2683596 0 -1 1 1
275 2 4.2603165 12.393451500000001 11.3518836 0 -1 1 1
276 2 2.95573335 13.159683600000001 11.027029800000001 0 -1 1 1
277 2 2.99574861 14.119035900000002 9.793167 0 -1 1 1
278 2 1.6419461400000002 14.5605321 9.3190518 0 -1 1 1
279 2 63.647529 15.6368805 10.226842500000002 -1 -1 1 1
280 2 62.338053 16.279356900000003 9.776660999999999 -1 -1 1 1
281 2 62.507829 17.0994693 8.5046379 -1 -1 1 1
282 2 61.13508 17.457767399999998 7.903819500000001 -1 -1 1 1
283 2 60.207600000000006 18.3933825 8.723028 -1 -1 1 1
284 2 58.834065 18.604816500000002 8.015745899999999 -1 -1 1 1
285 2 57.85353 19.4730321 8.797226400000001 -1 -1 1 1
286 2 56.701647 20.0688987 7.9335303 -1 -1 1 1
287 2 55.397673000000005 20.4745926 8.7071901 -1 -1 1 1
288 2 54.396309 21.3120363 7.889907300000001 -1 -1 1 1
289 2 52.89504900000001 20.8723086 8.007571500000001 -1 -1 1 1
290 2 52.070535 21.9434694 7.3229262 -1 -1 1 1
291 2 50.599928999999996 21.6805917 7.4884578 -1 -1 1 1
292 2 49.695243 22.720194600000003 6.789625200000001 -1 -1 1 1
293 2 48.104379 22.570265100000004 6.765809400000001 -1 -1 1 1
294 2 47.287725 23.7524091 6.1983174000000005 -1 -1 1 1
295 2 45.74913 23.6650059 6.2788824000000005 -1 -1 1 1
296 2 45.10854 22.8426927 5.2108263 -1 -1 1 1
297 2 43.64265 22.4804253 5.618328 -1 -1 1 1
298 2 42.819708 22.023916500000002 4.3879236 -1 -1 1 1
299 2 41.372682000000005 21.7668945 4.7076684 -1 -1 1 1
300 2 40.842525 20.657612699999998 3.7323288600000004 -1 -1 1 2
301 3 47.518416 26.0562144 19.019392200000002 0 -1 0 2
302 3 47.000049000000004 24.8796903 19.8245313 0 -1 0 1
303 3 47.273184 23.5187706 19.227603600000002 0 -1 0 1
304 3 46.760319 23.333196 17.7717351 0 -1 0 1
305 3 47.461431000000005 22.160837700000002 17.0925918 0 -1 0 1
306 3 47.36907600000001 21.9806079 15.5756118 0 -1 0 1
307 3 48.179442 20.8849239 14.896900800000001 0 -1 0 1
308 3 47.694087 19.5060834 15.1934586 0 -1 0 1
309 3 48.280443 18.217711500000004 14.4355581 0 -1 0 1
310 3 49.792707 18.0535554 14.3999523 0 -1 0 1
311 3 50.348409 17.8656228 15.814673700000002 0 -1 0 1
312 3 51.635091 17.0667324 15.985707300000001 0 -1 0 1
313 3 51.578106000000005 15.6740583 15.3811554 0 -1 0 1
314 3 52.92138 14.9613528 15.165909300000001 0 -1 0 1
315 3 53.943180000000005 14.8690371 16.3820871 0 -1 0 1
316 3 54.990132 13.731027000000001 16.357839000000002 0 -1 0 1
317 3 55.98285 13.8054219 15.278071500000001 0 -1 0 1
318 3 57.361101000000005 13.1852286 15.538630500000002 0 -1 0 1
319 3 58.24770900000001 13.6831203 14.3919744 0 -1 0 1
320 3 59.781981 13.4381634 14.5105032 0 -1 0 1
321 3 60.818715000000005 14.1997974 13.6152885 0 -1 0 1
322 3 61.254159 15.6248547 14.0222007 0 -1 0 1
323 3 62.708259000000005 16.043714100000003 13.888973700000001 0 -1 0 1
324 3 62.955456000000005 17.5113726 14.1641523 0 -1 0 1
325 3 62.452023000000004 17.9897715 15.5335608 0 -1 0 1
326 3 62.712582000000005 19.4956296 15.4815276 0 -1 0 1
327 3 62.455167 20.0534931 16.8501108 0 -1 0 1
328 3 62.593503 21.5942496 16.794265499999998 0 -1 0 1
329 3 62.279103 22.3936902 18.124216800000003 0 -1 0 1
330 3 60.801423 22.3765554 18.6266673 0 -1 0 1
331 3 60.640293 22.807362 20.099906400000002 0 -1 0 1
332 3 59.186193 23.0185209 20.2933017 0 -1 0 1
333 3 58.707126 23.1802404 21.747637500000003 0 -1 0 1
334 3 58.629312000000006 24.657920400000002 22.138476000000004 0 -1 0 1
335 3 58.037847 24.8950173 23.6064882 0 -1 0 1
336 3 58.210767000000004 26.3167341 24.1558236 0 -1 0 1
337 3 57.862569 26.613409800000003 25.6388877 0 -1 0 1
338 3 57.679038000000006 28.11129 25.752111 0 -1 0 1
339 3 56.451699000000005 28.609574700000003 24.9542031 0 -1 0 1
340 3 55.811109 29.879200500000003 25.5279831 0 -1 0 1
341 3 54.525213 30.327220500000003 24.8096184 0 -1 0 1
342 3 53.829603000000006 31.3058298 25.715719200000002 0 -1 0 1
343 3 52.829418000000004 32.2429383 25.0098519 0 -1 0 1
344 3 52.091757 33.1496286 26.081838 0 -1 0 1
345 3 50.95716600000001 34.0130103 25.6036749 0 -1 0 1
346 3 50.454912 34.950786900000004 26.6970795 0 -1 0 1
347 3 49.222071 35.865258600000004 26.6126238 0 -1 0 1
348 3 49.05779700000001 36.7543032 27.849001800000003 0 -1 0 1
349 3 47.66304 37.2881544 28.165445400000003 0 -1 0 1
350 3 46.923021000000006 37.834188600000004 26.942115 0 -1 0 1
351 3 45.593109000000005 38.57283210000001 27.2820207 0 -1 0 1
352 3 44.953305 39.412791000000006 26.1029421 0 -1 0 1
353 3 43.533003 39.917796 26.508243 0 -1 0 1
354 3 42.935643000000006 40.971822 25.5433887 0 -1 0 1
355 3 43.845831000000004 42.250644 25.3303827 0 -1 0 1
356 3 43.413138000000004 43.065333 24.099703200000004 0 -1 0 1
357 3 43.964124 42.649146 22.779301800000002 0 -1 0 1
358 3 45.429621 42.930927000000004 22.615853100000002 0 -1 0 1
359 3 45.986502 42.837786 21.1823856 0 -1 0 1
360 3 46.047810000000005 41.434383000000004 20.5635285 0 -1 0 1
361 3 46.698225 41.412375 19.165627500000003 0 -1 0 1
362 3 46.215621000000006 40.154775 18.4141722 0 -1 0 1
363 3 46.85031600000001 40.049451 17.047868400000002 0 -1 0 1
364 3 48.343323000000005 39.550341 17.0897229 0 -1 0 1
365 3 48.76108200000001 39.0808239 15.6463125 0 -1 0 1
366 3 49.156833000000006 40.061634 14.5134114 0 -1 0 1
367 3 49.092381 39.356199000000004 13.1654607 0 -1 0 1
368 3 49.500315 40.297041 12.0166824 0 -1 0 1
369 3 49.810785 39.479208 10.7754705 0 -1 0 1
370 3 48.799989 38.3263818 10.4949864 0 -1 0 1
371 3 48.796452 37.8259356 9.0792039 0 -1 0 1
372 3 47.634744 36.8224101 8.754900300000001 0 -1 0 1
373 3 47.720418 36.2001732 7.3635624 0 -1 0 1
374 3 46.341381000000005 35.5321518 7.1292951 0 -1 0 1
375 3 45.114042000000005 36.3899922 6.742425900000001 0 -1 0 1
376 3 43.787274000000004 35.6386941 6.4244889 0 -1 0 1
377 3 42.583122 36.6750744 6.4568721 0 -1 0 1
378 3 41.266965000000006 35.9715258 6.082146600000001 0 -1 0 1
379 3 40.333983 37.1070993 5.8106229 0 -1 0 1
380 3 38.8615692 36.6485076 5.914610700000001 0 -1 0 1
381 3 37.981485 37.8071109 5.525973 0 -1 0 1
382 3 38.4477009 38.2210185 4.0701438 0 -1 0 1
383 3 37.5450585 39.1106526 3.18960765 0 -1 0 1
384 3 38.118170400000004 39.715008000000005 1.8828983700000002 0 -1 0 1
385 3 37.046538000000005 40.183857 63.56657100000001 0 -1 -1 1
386 3 37.639968 40.610655 62.238624 0 -1 -1 1
387 3 36.651376500000005 41.436741 61.432974 0 -1 -1 1
388 3 36.135642600000004 42.66879600000001 62.200503000000005 0 -1 -1 1
389 3 35.2722216 43.588416 61.334331000000006 0 -1 -1 1
390 3 33.9742212 42.989877 60.784131 0 -1 -1 1
391 3 33.040413900000004 43.868232 59.963154 0 -1 -1 1
392 3 32.4609747 43.040181000000004 58.798302 0 -1 -1 1
393 3 31.3285845 43.882380000000005 58.130595 0 -1 -1 1
394 3 30.224883300000002 44.425113 59.072223 0 -1 -1 1
395 3 28.9556505 43.618677000000005 58.931922 0 -1 -1 1
396 3 28.0005819 44.11425 60.037431000000005 0 -1 -1 1
397 3 26.7276942 43.246506000000004 60.139218 0 -1 -1 1
398 3 25.687659 43.141968000000006 58.981047 0 -1 -1 1
399 3 24.3853356 42.356753999999995 59.293482000000004 0 -1 -1 1
400 3 23.6682285 41.860002 58.073217 0 -1 -1 1
401 3 22.388934900000002 41.027235000000005 58.303908 0 -1 -1 1
402 3 21.8918292 40.293897 57.056133 0 -1 -1 1
403 3 21.549801300000002 38.8453383 57.44874 0 -1 -1 1
404 3 20.2784856 38.7517257 58.334562000000005 0 -1 -1 1
405 3 20.0113242 37.300298100000006 58.724811 0 -1 -1 1
406 3 19.416675899999998 36.4286634 57.615372 0 -1 -1 1
407 3 19.2896976 34.9495293 58.10740800000001 0 -1 -1 1
408 3 18.7320306 34.064847 56.985393 0 -1 -1 1
409 3 18.716821500000002 32.5954593 57.483324 0 -1 -1 1
410 3 18.2879799 31.554755999999998 56.394714 0 -1 -1 1
411 3 18.2292264 30.0976692 56.930373 0 -1 -1 1
412 3 18.2463219 28.921263 55.917612000000005 0 -1 -1 1
413 3 18.3184767 27.485280300000003 56.382924 0 -1 -1 1
414 3 16.939479 26.9091423 56.794395 0 -1 -1 1
415 3 16.749502800000002 25.394323800000002 56.784963 0 -1 -1 1
416 3 15.3369429 24.915885600000003 57.310011 0 -1 -1 1
417 3 14.9817102 23.4105384 57.123729 0 -1 -1 1
418 3 13.658322 22.928406000000003 57.729735000000005 0 -1 -1 1
419 3 13.050429600000001 21.700202400000002 57.067137 0 -1 -1 1
420 3 11.4986691 21.6297375 57.16931700000001 0 -1 -1 1
421 3 10.8827988 20.5195911 56.33065500000001 0 -1 -1 1
422 3 9.3453435 20.479583700000003 56.382138000000005 0 -1 -1 1
423 3 8.780799000000002 19.7598435 57.610263 0 -1 -1 1
424 3 7.2714039 19.6527117 57.434985 0 -1 -1 1
425 3 6.5233677000000005 19.0530723 58.680009000000005 0 -1 -1 1
426 3 6.9126735 19.725338100000002 60.02446200000001 0 -1 -1 1
427 3 6.070278 19.1442483 61.229007 0 -1 -1 1
428 3 5.7328875 17.6184258 61.155909 0 -1 -1 1
429 3 4.583559 17.1864009 62.0547 0 -1 -1 1
430 3 4.3089306 15.7012539 62.099109 0 -1 -1 1
431 3 2.95888914 15.2455704 62.73183900000001 0 -1 -1 1
432 3 2.72311272 13.728708300000001 62.452023000000004 0 -1 -1 1
433 3 2.4342813000000003 13.444923000000001 60.97355700000001 0 -1 -1 1
434 3 63.611373 13.807662 60.636756 -1 -1 -1 1
435 3 63.136236000000004 13.3414461 59.203878 -1 -1 -1 1
436 3 62.00439600000001 14.173938 58.591977 -1 -1 -1 1
437 3 62.178102 15.706638 58.63717200000001 -1 -1 -1 1
438 3 63.344133 16.1753298 57.752136 -1 -1 -1 1
439 3 63.671502000000004 17.675646600000004 57.67039200000001 -1 -1 -1 1
440 3 1.9990416599999998 18.066760199999997 56.546412000000004 0 -1 -1 1
441 3 2.26425378 19.546641 56.672172 0 -1 -1 1
442 3 3.64609287 20.085719100000002 56.15184 0 -1 -1 1
443 3 3.8482992300000003 19.769393400000002 54.65451 0 -1 -1 1
444 3 5.1762816 20.120814 54.008418 0 -1 -1 1
445 3 5.163627000000001 20.5461972 52.530345000000004 0 -1 -1 1
446 3 6.428694 21.129330600000003 51.894864000000005 0 -1 -1 1
447 3 6.123097200000001 22.305736800000002 50.942232000000004 0 -1 -1 1
448 3 7.341200700000001 22.645053 49.991565 0 -1 -1 1
449 3 7.9361241 24.0852408 50.041083 0 -1 -1 1
450 3 8.5790328 24.648213300000002 51.306543 0 -1 -1 2
451 4 19.7091858 23.6233086 55.45898100000001 1 -1 -1 2
452 4 20.972798700000002 22.8336537 55.866129 1 -1 -1 1
453 4 21.4068279 21.739816800000003 54.879306 1 -1 -1 1
454 4 22.657039500000003 20.9997192 55.404747 1 -1 -1 1
455 4 22.3995459 20.088470100000002 56.632479000000004 1 -1 -1 1
456 4 23.729693700000002 19.4588055 57.187788000000005 1 -1 -1 1
457 4 24.5669409 18.653548500000003 56.161665 1 -1 -1 1
458 4 25.9037304 18.1109727 56.708721000000004 1 -1 -1 1
459 4 26.9676993 17.703078 55.649193000000004 1 -1 -1 1
460 4 26.4291321 16.502030700000002 54.860049000000004 1 -1 -1 1
461 4 27.3395559 16.1594133 53.705022 1 -1 -1 1
462 4 26.8810428 14.8929708 53.014521 1 -1 -1 1
463 4 27.607267500000003 14.4860193 51.756528 1 -1 -1 1
464 4 27.4146975 12.9985536 51.379248000000004 1 -1 -1 1
465 4 28.1810082 12.6878478 50.137761000000005 1 -1 -1 1
466 4 27.9141612 11.2162986 49.747512 1 -1 -1 1
467 4 28.764927600000004 10.5346401 48.636501 1 -1 -1 1
468 4 28.3896126 9.085767 48.25214700000001 1 -1 -1 1
469 4 29.636680200000004 8.2662834 47.825349 1 -1 -1 1
470 4 29.5226709 6.7000212 47.78762100000001 1 -1 -1 1
471 4 30.8102568 5.9079297 47.359644 1 -1 -1 1
472 4 30.512913 4.4065518 47.506233 1 -1 -1 1
473 4 31.5468174 3.56993733 46.732023 1 -1 -1 1
474 4 31.4429868 2.00486985 46.864857 1 -1 -1 1
475 4 32.4249759 1.22042613 45.911439 1 -1 -1 1
476 4 32.477873699999996 62.40604200000001 46.260816000000005 1 -2 -1 1
477 4 33.4929927 61.539477 45.48189 1 -2 -1 1
478 4 33.637145100000005 60.0504 45.933054 1 -2 -1 1
479 4 34.2272346 59.101698000000006 44.878242 1 -2 -1 1
480 4 34.3787754 57.682968 45.46224 1 -2 -1 1
481 4 35.2513926 56.857668 44.551659 1 -2 -1 1
482 4 35.0897517 55.41142800000001 44.907324 1 -2 -1 1
483 4 36.2496126 54.552330000000005 44.315073 1 -2 -1 1
484 4 35.86521930000001 53.059323 44.436510000000006 1 -2 -1 1
485 4 36.93347190000001 52.199046 43.743258 1 -2 -1 1
486 4 37.2381648 52.698549 42.366972000000004 1 -2 -1 1
487 4 38.6278521 52.306335000000004 41.774328000000004 1 -2 -1 1
488 4 39.807363 53.053821000000006 42.430245 1 -2 -1 1
489 4 39.798324 54.589272 42.249465 1 -2 -1 1
490 4 40.930164 55.35719400000001 42.925032 1 -2 -1 1
491 4 40.945491 56.879676 42.662901000000005 1 -2 -1 1
492 4 39.756273 57.542667 43.382877 1 -2 -1 1
493 4 39.728763 59.054538 43.425321000000004 1 -2 -1 1
494 4 38.46605400000001 59.692377 43.972770000000004 1 -2 -1 1
495 4 38.723744100000005 61.167306 44.427864 1 -2 -1 1
496 4 37.451721 62.044482 44.632224 1 -2 -1 1
497 4 37.8009015 63.48875700000001 44.901036000000005 1 -2 -1 1
498 4 36.557017200000004 1.67569305 45.151770000000006 1 -1 -1 1
499 4 36.825239700000004 3.14427117 45.30111 1 -1 -1 1
500 4 35.5633167 4.0465638 45.360846 1 -1 -1 1
501 4 35.6967009 5.5908573 45.342375 1 -1 -1 1
502 4 34.92107610000001 6.3316623000000005 46.459281000000004 1 -1 -1 1
503 4 34.8986751 7.855991400000001 46.317801 1 -1 -1 1
504 4 34.0677159 8.737608300000002 47.308161 1 -1 -1 1
505 4 33.970644899999996 10.2736488 47.068824000000006 1 -1 -1 1
506 4 33.0699282 11.0331606 48.07215300000001 1 -1 -1 1
507 4 32.746410600000004 12.4896186 47.88115500000001 1 -1 -1 1
508 4 32.4101991 13.1728098 49.190238 1 -1 -1 1
509 4 32.0143695 14.649075000000002 48.91749600000001 1 -1 -1 1
510 4 31.4283672 15.4085082 50.080776 1 -1 -1 1
511 4 30.926073900000002 16.7561052 49.565946000000004 1 -1 -1 1
512 4 30.1649508 17.5012725 50.65141200000001 1 -1 -1 1
513 4 29.4864363 18.7852035 50.191995 1 -1 -1 1
514 4 28.691279400000003 19.453107000000003 51.251523000000006 1 -1 -1 1
515 4 29.408936699999998 19.5617322 52.590474 1 -1 -1 1
516 4 28.7521551 20.388879300000003 53.699913 1 -1 -1 1
517 4 29.574193200000003 20.533346100000003 54.94926 1 -1 -1 1
518 4 28.952703 21.482166 56.021364 1 -1 -1 1
519 4 28.748971800000003 22.8997563 55.405926 1 -1 -1 1
520 4 27.9112923 23.7015156 56.36366700000001 1 -1 -1 1
521 4 28.663847999999998 23.9693058 57.68493300000001 1 -1 -1 1
522 4 27.8367009 24.6614967 58.819524 1 -1 -1 1
523 4 28.6115397 24.972241800000003 60.110529 1 -1 -1 1
524 4 27.656392500000003 25.1439435 61.33944 1 -1 -1 1
525 4 28.330191000000003 25.5927495 62.614725 1 -1 -1 1
526 4 27.483983400000003 25.7761626 1.31339814 1 -1 0 1
527 4 28.5360051 25.8650199 2.4700167900000003 1 -1 0 1
528 4 28.050217800000002 26.322432600000003 3.88643595 1 -1 0 1
529 4 29.107545000000002 26.192664 4.9843797 1 -1 0 1
530 4 30.4292826 26.9862882 4.9195347 1 -1 0 1
531 4 31.3885563 26.545185 6.011485200000001 1 -1 0 1
532 4 32.800644600000005 27.2656719 6.0861945 1 -1 0 1
533 4 33.4845825 27.1258032 7.3919763000000005 1 -1 0 1
534 4 34.571659800000006 28.174916700000004 7.697691000000001 1 -1 0 1
535 4 35.9481423 27.7372719 7.160853 1 -1 0 1
536 4 37.09224390000001 28.727042400000002 7.4254992 1 -1 0 1
537 4 38.5534179 28.223963100000002 7.229549400000001 1 -1 0 1
538 4 39.650949 28.931716800000004 8.0704515 1 -1 0 1
539 4 41.025663 28.3409592 7.7285808000000005 1 -1 0 1
540 4 42.08637 28.3389156 8.8310637 1 -1 0 1
541 4 43.365585 27.6468426 8.473355100000001 1 -1 0 1
542 4 44.604714 27.8793807 9.317872800000002 1 -1 0 1
543 4 45.796683 26.9401893 8.8967733 1 -1 0 1
544 4 47.07747 27.1993335 9.7011264 1 -1 0 1